# ========================
# TONTO generated CIF file
# ========================

data_so2

_audit_creation_date               2012-9-3
_audit_creation_method             'Tonto v3.1 ($Rev: 3699 $)'

# ==================--
# Chemical information
# ==================--

_chemical_name_common              so2
_chemical_formula_moiety           'O2 S'
_chemical_formula_sum              'O2 S'
_chemical_formula_weight           64.06
_chemical_compound_source          'see text'
_chemical_absolute_configuration   unk

# --------------------
# Symmetry information
# --------------------

_symmetry_cell_setting             Orthorhombic
_symmetry_space_group_name_H-M     'a b a 2'
_symmetry_space_group_name_Hall    'a 2 -2ab'
_symmetry_Int_Tables_number        '41'

loop_
    _symmetry_equiv_pos_as_xyz
'+x, +y, +z'
 '+x, +y+1/2, +z+1/2'
'-x, -y, +z'
 '-x+1/2, +y+1/2, +z'
 '-x, -y+1/2, +z+1/2'
 '-x+1/2, +y, +z+1/2'
 '+x+1/2, -y+1/2, +z'
 '+x+1/2, -y, +z+1/2'

# ---------------------
# Unit cell information
# ---------------------

_cell_length_a   6.0785
_cell_length_b   5.9533
_cell_length_c   6.1710
_cell_angle_alpha  90.0000
_cell_angle_beta  90.0000
_cell_angle_gamma  90.0000
_cell_formula_units_Z 4

# ------------------
# Refinement details
# ------------------

_refine_special_details
;
  .  Hirshfeld atom refinement:
     .  Uses aspherical atomic scattering factors
        obtained from Hirshfeld partitioning of a
        gaussian quantum chemical wavefunction.
     .  Hirshfeld weight functions obtained from
        spherically averaged unrestricted atomic
        densities.
  .  Wavefunction type : rhf using cluster charges, radius=8.0 angstrom
  .  Gaussian basis set: DZP
  .  Refinement based on |F| with weight=1/sigma(|F|)
  .  Negative |F|^^2 were pruned from the data
  .  |F| < 4.0 sigma(|F|) were pruned from the data
  .  Eigenvalues < 0.1E-04 removed from normal equations
  .  Reflection used in the refinement appear below
  .  Refined using the Tonto program:
     .  Version: 3.1 ($Rev: 3771 $)
     .  Platform: GNU-gfortran-on-LINUX
     .  Build-date: Mon Sep  3 14:24:53 WST 2012
;

_refine_ls_structure_factor_coef        F
_refine_ls_matrix_type                  full
_refine_ls_weighting_details            'w=1/\s(F)'
_refine_ls_hydrogen_treatment           refall
_refine_ls_extinction_method            none
_refine_ls_number_reflns                1080
_refine_ls_number_parameters            27
_refine_ls_number_restraints            0
_refine_ls_number_constraints           17
_refine_ls_R_factor_all                 0.0287
_refine_ls_wR_factor_ref                0.0122
_refine_ls_goodness_of_fit_ref          3.6982
_refine_ls_shift/su_max                 ?
_refine_ls_shift/su_mean                ?

# ---------------------
# Coordinates and ADP's
# ---------------------

loop_
_atom_site_label
_atom_site_fract_x
_atom_site_fract_y
_atom_site_fract_z
_atom_site_adp_type
_atom_site_occupancy
S -0.2226830745E-14  0.1000000000E+01  0.8513548043E+00              Uani  0.1000000000E+01
O1 -0.1366345866E+00  0.1150045405E+01  0.9716011957E+00              Uani  0.1000000000E+01
O2  0.1366345866E+00  0.8499545955E+00  0.9716011957E+00              Uani  0.1000000000E+01

loop_
_atom_site_aniso_label
_atom_site_aniso_U_11
_atom_site_aniso_U_22
_atom_site_aniso_U_33
_atom_site_aniso_U_12
_atom_site_aniso_U_13
_atom_site_aniso_U_23
S  0.1950805276E-01  0.1639070577E-01  0.1747014679E-01  0.1750167172E-02  0.7717486240E-14 -0.5116253059E-14
O1  0.2373408942E-01  0.2608595315E-01  0.3231697446E-01  0.4498728386E-02  0.3195685480E-02 -0.6290009132E-02
O2  0.2373408942E-01  0.2608595315E-01  0.3231697446E-01  0.4498728386E-02 -0.3195685480E-02  0.6290009132E-02

loop_
_atom_site_ADP3_label
_atom_site_ADP3_U_111
_atom_site_ADP3_U_222
_atom_site_ADP3_U_333
_atom_site_ADP3_U_112
_atom_site_ADP3_U_113
_atom_site_ADP3_U_122
_atom_site_ADP3_U_223
_atom_site_ADP3_U_133
_atom_site_ADP3_U_233
_atom_site_ADP3_U_123
S  0.9766281452E-20  0.4584958275E-19 -0.1652094333E-04
  0.3091256973E-20  0.5316691589E-04  0.1511902407E-19  0.2496017468E-03
 -0.1011582608E-20 -0.1011582612E-20 -0.1340595507E-05

loop_
_atom_site_ADP4_label
_atom_site_ADP4_U_1111
_atom_site_ADP4_U_2222
_atom_site_ADP4_U_3333
_atom_site_ADP4_U_1112
_atom_site_ADP4_U_1113
_atom_site_ADP4_U_1222
_atom_site_ADP4_U_2223
_atom_site_ADP4_U_1333
_atom_site_ADP4_U_2333
_atom_site_ADP4_U_1122
_atom_site_ADP4_U_1133
_atom_site_ADP4_U_2233
_atom_site_ADP4_U_1123
_atom_site_ADP4_U_1223
_atom_site_ADP4_U_1233
S  0.2843096229E-05 -0.2709734492E-04  0.4004296581E-05
 -0.8652362555E-06 -0.5262979393E-21 -0.6946531136E-05
  0.4817974860E-21  0.2451843516E-21  0.2451843520E-21
  0.1434986886E-05 -0.2865127163E-05  0.2622869981E-05
 -0.1581905372E-20 -0.1245873563E-20 -0.1148510067E-04
